nqpoint: 306    
npath: 6      
segment_nqpoint:
- 51
- 51
- 51
- 51
- 51
- 51
labels:
- [ '$\Gamma$', '$\mathrm{X}$' ]
- [ '$\mathrm{X}$', '$\mathrm{U}$' ]
- [ '$\mathrm{K}$', '$\Gamma$' ]
- [ '$\Gamma$', '$\mathrm{L}$' ]
- [ '$\mathrm{L}$', '$\mathrm{W}$' ]
- [ '$\mathrm{W}$', '$\mathrm{X}$' ]
reciprocal_lattice:
- [  -0.15220760,   0.15220760,   0.15220760 ] # a*
- [   0.15220760,  -0.15220760,   0.15220760 ] # b*
- [   0.15220760,   0.15220760,  -0.15220760 ] # c*
natom: 2      
lattice:
- [     0.000000000000000,     3.284986996969207,     3.284986996969207 ] # a
- [     3.284986996969207,     0.000000000000000,     3.284986996969207 ] # b
- [     3.284986996969207,     3.284986996969207,     0.000000000000000 ] # c
points:
- symbol: Sn # 1
  coordinates: [  0.000000000000000,  0.000000000000000,  0.000000000000000 ]
  mass: 118.710000
- symbol: Sn # 2
  coordinates: [  0.250000000000000,  0.250000000000000,  0.250000000000000 ]
  mass: 118.710000

phonon:
- q-position: [    0.0000000,    0.0000000,    0.0000000 ]
  distance:    0.0000000
  band:
  - # 1
    frequency:   -0.0000001795
    eigenvector:
    - # atom 1
      - [ -0.70710678118655,  0.00000000000000 ]
      - [  0.00000000000000,  0.00000000000000 ]
      - [  0.00000000000000,  0.00000000000000 ]
    - # atom 2
      - [ -0.70710678118655,  0.00000000000000 ]
      - [ -0.00000000000000,  0.00000000000000 ]
      - [ -0.00000000000000,  0.00000000000000 ]
  - # 2
    frequency:   -0.0000001499
    eigenvector:
    - # atom 1
      - [  0.00000000000000,  0.00000000000000 ]
      - [  0.55538578231623,  0.00000000000000 ]
      - [ -0.43766040808026,  0.00000000000000 ]
    - # atom 2
      - [  0.00000000000000,  0.00000000000000 ]
      - [  0.55538578231624,  0.00000000000000 ]
      - [ -0.43766040808026,  0.00000000000000 ]
  - # 3
    frequency:   -0.0000001302
    eigenvector:
    - # atom 1
      - [ -0.00000000000000,  0.00000000000000 ]
      - [  0.43766040808026,  0.00000000000000 ]
      - [  0.55538578231624,  0.00000000000000 ]
    - # atom 2
      - [  0.00000000000000,  0.00000000000000 ]
      - [  0.43766040808026,  0.00000000000000 ]
      - [  0.55538578231623,  0.00000000000000 ]
  - # 4
    frequency:    5.5166085248
    eigenvector:
    - # atom 1
      - [  0.00000000000000,  0.00000000000000 ]
      - [ -0.56046979762700,  0.00000000000000 ]
      - [  0.43113061355923,  0.00000000000000 ]
    - # atom 2
      - [  0.00000000000000,  0.00000000000000 ]
      - [  0.56046979762699,  0.00000000000000 ]
      - [ -0.43113061355923,  0.00000000000000 ]
  - # 5
    frequency:    5.5166085248
    eigenvector:
    - # atom 1
      - [  0.70710678118655,  0.00000000000000 ]
      - [  0.00000000000000,  0.00000000000000 ]
      - [  0.00000000000000,  0.00000000000000 ]
    - # atom 2
      - [ -0.70710678118655,  0.00000000000000 ]
      - [ -0.00000000000000,  0.00000000000000 ]
      - [ -0.00000000000000,  0.00000000000000 ]
  - # 6
    frequency:    5.5166085248
    eigenvector:
    - # atom 1
      - [  0.00000000000000,  0.00000000000000 ]
      - [ -0.43113061355923,  0.00000000000000 ]
      - [ -0.56046979762699,  0.00000000000000 ]
    - # atom 2
      - [  0.00000000000000,  0.00000000000000 ]
      - [  0.43113061355923,  0.00000000000000 ]
      - [  0.56046979762700,  0.00000000000000 ]

- q-position: [    0.0100000,    0.0000000,    0.0100000 ]
  distance:    0.0030442
  band:
  - # 1
    frequency:    0.0580977021
    eigenvector:
    - # atom 1
      - [ -0.00000000000000,  0.00000000000000 ]
      - [ -0.00000000000041,  0.00000000000000 ]
      - [  0.65610640304377, -0.26367477673256 ]
    - # atom 2
      - [ -0.00634549876090, -0.01578961180558 ]
      - [ -0.00000000000041,  0.00000000000000 ]
      - [  0.65591638207478, -0.26359841147177 ]
  - # 2
    frequency:    0.0580977021
    eigenvector:
    - # atom 1
      - [ -0.70710678118655,  0.00000000000000 ]
      - [  0.00000000000000,  0.00000000000000 ]
      - [  0.00000000000000, -0.00000000000000 ]
    - # atom 2
      - [ -0.70690198953214,  0.00000000000000 ]
      - [  0.00000000000000, -0.00000000000000 ]
      - [ -0.00000000000000,  0.01701696787020 ]
  - # 3
    frequency:    0.1048486125
    eigenvector:
    - # atom 1
      - [  0.00000000000000,  0.00000000000000 ]
      - [ -0.70694598655871,  0.01507886230901 ]
      - [ -0.00000000000038,  0.00000000000016 ]
    - # atom 2
      - [  0.00000000000000,  0.00000000000001 ]
      - [ -0.70694598655871,  0.01507886230901 ]
      - [ -0.00000000000038,  0.00000000000016 ]
  - # 4
    frequency:    5.5161029391
    eigenvector:
    - # atom 1
      - [  0.00000000000000,  0.00000000000000 ]
      - [  0.00000000000103, -0.00000000000001 ]
      - [ -0.54849849932152, -0.44626157827226 ]
    - # atom 2
      - [  0.01073956457668, -0.01319996015898 ]
      - [ -0.00000000000103,  0.00000000000001 ]
      - [  0.54833964366053,  0.44613233237992 ]
  - # 5
    frequency:    5.5161029391
    eigenvector:
    - # atom 1
      - [  0.70710678118655,  0.00000000000000 ]
      - [  0.00000000000000,  0.00000000000000 ]
      - [  0.00000000000000, -0.00000000000000 ]
    - # atom 2
      - [ -0.70690198953214,  0.00000000000000 ]
      - [  0.00000000000000, -0.00000000000000 ]
      - [ -0.00000000000000,  0.01701696787020 ]
  - # 6
    frequency:    5.5166960077
    eigenvector:
    - # atom 1
      - [  0.00000000000000,  0.00000000000000 ]
      - [  0.70683253337937, -0.01969187031497 ]
      - [  0.00000000000081,  0.00000000000063 ]
    - # atom 2
      - [ -0.00000000000001,  0.00000000000002 ]
      - [ -0.70683253337937,  0.01969187031497 ]
      - [ -0.00000000000081, -0.00000000000063 ]

- q-position: [    0.0200000,    0.0000000,    0.0200000 ]
  distance:    0.0060883
  band:
  - # 1
    frequency:    0.1160480155
    eigenvector:
    - # atom 1
      - [ -0.70621447248037,  0.00000000000000 ]
      - [ -0.00000000000002, -0.00000000000000 ]
      - [ -0.00126207373157,  0.03548980176283 ]
    - # atom 2
      - [ -0.70368503190016,  0.00006079570682 ]
      - [ -0.00000000000002, -0.00000000000000 ]
      - [ -0.00126060857761,  0.06946785623267 ]
  - # 2
    frequency:    0.1160480155
    eigenvector:
    - # atom 1
      - [ -0.03551223534599,  0.00000000000000 ]
      - [  0.00000000000004,  0.00000000000002 ]
      - [  0.02509824363035, -0.70576834677350 ]
    - # atom 2
      - [ -0.06946877332622, -0.00120901451574 ]
      - [  0.00000000000004,  0.00000000000002 ]
      - [  0.02506910682950, -0.70323834345066 ]
  - # 3
    frequency:    0.2096439536
    eigenvector:
    - # atom 1
      - [  0.00000000000002,  0.00000000000000 ]
      - [ -0.70688630981065, -0.01765630205559 ]
      - [ -0.00000000000002, -0.00000000000004 ]
    - # atom 2
      - [  0.00000000000002,  0.00000000000000 ]
      - [ -0.70688630981065, -0.01765630205559 ]
      - [ -0.00000000000002, -0.00000000000004 ]
  - # 4
    frequency:    5.5145904956
    eigenvector:
    - # atom 1
      - [  0.70710678118655,  0.00000000000000 ]
      - [  0.00000000000000,  0.00000000000000 ]
      - [  0.00000000000000,  0.00000000000000 ]
    - # atom 2
      - [ -0.70628589388610,  0.00000000000000 ]
      - [ -0.00000000000000,  0.00000000000000 ]
      - [ -0.00000000000000,  0.03406223858629 ]
  - # 5
    frequency:    5.5145904956
    eigenvector:
    - # atom 1
      - [ -0.00000000000000,  0.00000000000000 ]
      - [  0.00000000000010, -0.00000000000013 ]
      - [ -0.00878389601152,  0.70705222096452 ]
    - # atom 2
      - [ -0.03405961035057, -0.00042313151227 ]
      - [ -0.00000000000010,  0.00000000000013 ]
      - [  0.00877369869921, -0.70623139700358 ]
  - # 6
    frequency:    5.5169533072
    eigenvector:
    - # atom 1
      - [  0.00000000000000,  0.00000000000000 ]
      - [ -0.70675556249772, -0.02228396011771 ]
      - [ -0.00000000000013,  0.00000000000009 ]
    - # atom 2
      - [ -0.00000000000000, -0.00000000000001 ]
      - [  0.70675556249772,  0.02228396011771 ]
      - [  0.00000000000013, -0.00000000000009 ]

- q-position: [    0.0300000,    0.0000000,    0.0300000 ]
  distance:    0.0091325
  band:
  - # 1
    frequency:    0.1737036029
    eigenvector:
    - # atom 1
      - [ -0.70710678118655,  0.00000000000000 ]
      - [  0.00000000000000,  0.00000000000000 ]
      - [  0.00000000000000, -0.00000000000000 ]
    - # atom 2
      - [ -0.70525334354782,  0.00000000000000 ]
      - [  0.00000000000000, -0.00000000000000 ]
      - [ -0.00000000000000,  0.05116367280226 ]
  - # 2
    frequency:    0.1737036029
    eigenvector:
    - # atom 1
      - [  0.00000000000000,  0.00000000000000 ]
      - [ -0.00000000000004, -0.00000000000000 ]
      - [  0.70443698169223,  0.06138842581743 ]
    - # atom 2
      - [  0.00444184303692, -0.05097049582898 ]
      - [ -0.00000000000004, -0.00000000000000 ]
      - [  0.70259054201619,  0.06122751713713 ]
  - # 3
    frequency:    0.3143330150
    eigenvector:
    - # atom 1
      - [  0.00000000000000,  0.00000000000000 ]
      - [ -0.69047771714863, -0.15244842446287 ]
      - [ -0.00000000000004, -0.00000000000001 ]
    - # atom 2
      - [ -0.00000000000000,  0.00000000000000 ]
      - [ -0.69047771714863, -0.15244842446287 ]
      - [ -0.00000000000004, -0.00000000000001 ]
  - # 4
    frequency:    5.5120841085
    eigenvector:
    - # atom 1
      - [  0.00000000000000,  0.00000000000000 ]
      - [ -0.00000000000008, -0.00000000000002 ]
      - [  0.33161245464231,  0.62452636447639 ]
    - # atom 2
      - [ -0.04518845444367,  0.02399427014121 ]
      - [  0.00000000000008,  0.00000000000002 ]
      - [ -0.33074324645303, -0.62288938304573 ]
  - # 5
    frequency:    5.5120841085
    eigenvector:
    - # atom 1
      - [  0.70710678118655,  0.00000000000000 ]
      - [  0.00000000000000,  0.00000000000000 ]
      - [  0.00000000000000, -0.00000000000000 ]
    - # atom 2
      - [ -0.70525334354782,  0.00000000000000 ]
      - [  0.00000000000000, -0.00000000000000 ]
      - [ -0.00000000000000,  0.05116367280226 ]
  - # 6
    frequency:    5.5173650344
    eigenvector:
    - # atom 1
      - [  0.00000000000000,  0.00000000000000 ]
      - [  0.68635343317156,  0.17005576959812 ]
      - [  0.00000000000004,  0.00000000000007 ]
    - # atom 2
      - [ -0.00000000000001,  0.00000000000000 ]
      - [ -0.68635343317156, -0.17005576959812 ]
      - [ -0.00000000000004, -0.00000000000007 ]

- q-position: [    0.0400000,    0.0000000,    0.0400000 ]
  distance:    0.0121766
  band:
  - # 1
    frequency:    0.2309172408
    eigenvector:
    - # atom 1
      - [ -0.70650757328633,  0.00000000000000 ]
      - [ -0.00000000000001, -0.00000000000000 ]
      - [ -0.01518903333144,  0.02482623925441 ]
    - # atom 2
      - [ -0.70079971077269,  0.00146815694529 ]
      - [ -0.00000000000001, -0.00000000000000 ]
      - [ -0.01511791152003,  0.09300031530793 ]
  - # 2
    frequency:    0.2309172408
    eigenvector:
    - # atom 1
      - [  0.02910410433359,  0.00000000000000 ]
      - [  0.00000000000000, -0.00000000000001 ]
      - [ -0.36871662348920,  0.60266159880456 ]
    - # atom 2
      - [  0.08722050029280,  0.03563978429757 ]
      - [  0.00000000000000, -0.00000000000001 ]
      - [ -0.36699012822214,  0.59702649513351 ]
  - # 3
    frequency:    0.4188633113
    eigenvector:
    - # atom 1
      - [  0.00000000000001,  0.00000000000000 ]
      - [ -0.70696630443949, -0.01409412598086 ]
      - [ -0.00000000000001, -0.00000000000000 ]
    - # atom 2
      - [  0.00000000000001,  0.00000000000000 ]
      - [ -0.70696630443949, -0.01409412598086 ]
      - [ -0.00000000000001, -0.00000000000000 ]
  - # 4
    frequency:    5.5086052131
    eigenvector:
    - # atom 1
      - [  0.00000000000000, -0.00000000000000 ]
      - [ -0.00000000000004, -0.00000000000002 ]
      - [ -0.05606333913225, -0.70488077148220 ]
    - # atom 2
      - [  0.06813307849643, -0.00541902693393 ]
      - [  0.00000000000004,  0.00000000000002 ]
      - [  0.05580082563679,  0.70158020612040 ]
  - # 5
    frequency:    5.5086052131
    eigenvector:
    - # atom 1
      - [  0.70710678118655,  0.00000000000000 ]
      - [  0.00000000000000,  0.00000000000000 ]
      - [  0.00000000000000,  0.00000000000000 ]
    - # atom 2
      - [ -0.70379579265700,  0.00000000000000 ]
      - [ -0.00000000000000, -0.00000000000000 ]
      - [ -0.00000000000000,  0.06834824239373 ]
  - # 6
    frequency:    5.5179057356
    eigenvector:
    - # atom 1
      - [  0.00000000000000,  0.00000000000000 ]
      - [ -0.70687496658070, -0.01810474030567 ]
      - [  0.00000000000002,  0.00000000000004 ]
    - # atom 2
      - [ -0.00000000000000,  0.00000000000000 ]
      - [  0.70687496658070,  0.01810474030567 ]
      - [ -0.00000000000002, -0.00000000000004 ]

- q-position: [    0.0500000,    0.0000000,    0.0500000 ]
  distance:    0.0152208
  band:
  - # 1
    frequency:    0.2875419044
    eigenvector:
    - # atom 1
      - [ -0.70702409698055,  0.00000000000000 ]
      - [ -0.00000000000001, -0.00000000000000 ]
      - [ -0.01054814912861, -0.00237967199406 ]
    - # atom 2
      - [ -0.70210750057497,  0.00127754411866 ]
      - [ -0.00000000000001, -0.00000000000000 ]
      - [ -0.01047049812875,  0.08326940726535 ]
  - # 2
    frequency:    0.2875419044
    eigenvector:
    - # atom 1
      - [  0.01081324598993,  0.00000000000000 ]
      - [  0.00000000000001, -0.00000000000000 ]
      - [ -0.68969073850876, -0.15559485507691 ]
    - # atom 2
      - [ -0.00811130171279,  0.08353222313522 ]
      - [  0.00000000000001, -0.00000000000000 ]
      - [ -0.68461352782635, -0.15575908320149 ]
  - # 3
    frequency:    0.5231831332
    eigenvector:
    - # atom 1
      - [  0.00000000000001,  0.00000000000000 ]
      - [ -0.70706795392453, -0.00741002921550 ]
      - [ -0.00000000000001, -0.00000000000001 ]
    - # atom 2
      - [  0.00000000000001,  0.00000000000000 ]
      - [ -0.70706795392453, -0.00741002921550 ]
      - [ -0.00000000000001, -0.00000000000001 ]
  - # 4
    frequency:    5.5041836304
    eigenvector:
    - # atom 1
      - [ -0.56429793174689,  0.00000000000000 ]
      - [  0.00000000000001, -0.00000000000000 ]
      - [  0.10137818539197,  0.41387233267375 ]
    - # atom 2
      - [  0.51001746451825,  0.01227846733380 ]
      - [ -0.00000000000001,  0.00000000000000 ]
      - [ -0.10063188219099, -0.47917079357261 ]
  - # 5
    frequency:    5.5041836304
    eigenvector:
    - # atom 1
      - [  0.42610778475191, -0.00000000000000 ]
      - [ -0.00000000000002, -0.00000000000000 ]
      - [  0.13425593802340,  0.54809442514888 ]
    - # atom 2
      - [ -0.48935367800317,  0.01626047204352 ]
      - [  0.00000000000002,  0.00000000000000 ]
      - [ -0.13326760275275, -0.49245133864193 ]
  - # 6
    frequency:    5.5185401801
    eigenvector:
    - # atom 1
      - [ -0.00000000000002,  0.00000000000000 ]
      - [ -0.70703858836894, -0.00982010983963 ]
      - [ -0.00000000000000, -0.00000000000001 ]
    - # atom 2
      - [  0.00000000000002, -0.00000000000000 ]
      - [  0.70703858836894,  0.00982010983963 ]
      - [  0.00000000000000,  0.00000000000000 ]

- q-position: [    0.0600000,    0.0000000,    0.0600000 ]
  distance:    0.0182649
  band:
  - # 1
    frequency:    0.3434308860
    eigenvector:
    - # atom 1
      - [ -0.00000000000000,  0.00000000000000 ]
      - [ -0.00000000000000, -0.00000000000000 ]
      - [  0.22304321812889, -0.67100799015117 ]
    - # atom 2
      - [ -0.09780575004030, -0.03251065495596 ]
      - [ -0.00000000000000, -0.00000000000000 ]
      - [  0.22066113039597, -0.66384166644296 ]
  - # 2
    frequency:    0.3434308860
    eigenvector:
    - # atom 1
      - [ -0.70710678118655,  0.00000000000000 ]
      - [  0.00000000000000,  0.00000000000000 ]
      - [  0.00000000000000, -0.00000000000000 ]
    - # atom 2
      - [ -0.69955492462950, -0.00000000000000 ]
      - [ -0.00000000000000,  0.00000000000000 ]
      - [ -0.00000000000000,  0.10306748966871 ]
  - # 3
    frequency:    0.6272417903
    eigenvector:
    - # atom 1
      - [  0.00000000000000,  0.00000000000000 ]
      - [ -0.27046348084422,  0.65333720660133 ]
      - [  0.00000000000000,  0.00000000000000 ]
    - # atom 2
      - [  0.00000000000000, -0.00000000000000 ]
      - [ -0.27046348084422,  0.65333720660133 ]
      - [  0.00000000000000,  0.00000000000000 ]
  - # 4
    frequency:    5.4988573752
    eigenvector:
    - # atom 1
      - [  0.00000000000000,  0.00000000000000 ]
      - [  0.00000000000000, -0.00000000000000 ]
      - [ -0.12030788277310, -0.69679696708773 ]
    - # atom 2
      - [  0.10156473692134, -0.01753600982863 ]
      - [ -0.00000000000000,  0.00000000000000 ]
      - [  0.11902300204849,  0.68935521870568 ]
  - # 5
    frequency:    5.4988573752
    eigenvector:
    - # atom 1
      - [  0.70710678118655,  0.00000000000000 ]
      - [  0.00000000000000,  0.00000000000000 ]
      - [  0.00000000000000, -0.00000000000000 ]
    - # atom 2
      - [ -0.69955492462950, -0.00000000000000 ]
      - [ -0.00000000000000,  0.00000000000000 ]
      - [ -0.00000000000000,  0.10306748966871 ]
  - # 6
    frequency:    5.5192237559
    eigenvector:
    - # atom 1
      - [  0.00000000000000,  0.00000000000000 ]
      - [ -0.23562188114058,  0.66669507957369 ]
      - [ -0.00000000000000, -0.00000000000000 ]
    - # atom 2
      - [  0.00000000000000, -0.00000000000000 ]
      - [  0.23562188114058, -0.66669507957369 ]
      - [  0.00000000000000,  0.00000000000000 ]

- q-position: [    0.0700000,    0.0000000,    0.0700000 ]
  distance:    0.0213091
  band:
  - # 1
    frequency:    0.3984379576
    eigenvector:
    - # atom 1
      - [ -0.70710678118655,  0.00000000000000 ]
      - [  0.00000000000000,  0.00000000000000 ]
      - [  0.00000000000000,  0.00000000000000 ]
    - # atom 2
      - [ -0.69673824201405,  0.00000000000000 ]
      - [ -0.00000000000000, -0.00000000000000 ]
      - [ -0.00000000000000,  0.12064751184825 ]
  - # 2
    frequency:    0.3984379576
    eigenvector:
    - # atom 1
      - [  0.00000000000000,  0.00000000000000 ]
      - [  0.00000000000001, -0.00000000000000 ]
      - [ -0.25217947724997, -0.66060995394706 ]
    - # atom 2
      - [ -0.11271416052914,  0.04302720222588 ]
      - [  0.00000000000001, -0.00000000000000 ]
      - [ -0.24848168667868, -0.65092321303680 ]
  - # 3
    frequency:    0.7309898410
    eigenvector:
    - # atom 1
      - [  0.00000000000000,  0.00000000000000 ]
      - [  0.68581313812648, -0.17222177438730 ]
      - [  0.00000000000000,  0.00000000000001 ]
    - # atom 2
      - [  0.00000000000000, -0.00000000000000 ]
      - [  0.68581313812648, -0.17222177438730 ]
      - [  0.00000000000000,  0.00000000000001 ]
  - # 4
    frequency:    5.4926724010
    eigenvector:
    - # atom 1
      - [  0.00000000000000,  0.00000000000000 ]
      - [ -0.00000000000002, -0.00000000000000 ]
      - [  0.60697777748149, -0.36273678837916 ]
    - # atom 2
      - [  0.06189063962919,  0.10356336631002 ]
      - [  0.00000000000002,  0.00000000000000 ]
      - [ -0.59807746280470,  0.35741785961241 ]
  - # 5
    frequency:    5.4926724010
    eigenvector:
    - # atom 1
      - [  0.70710678118655,  0.00000000000000 ]
      - [  0.00000000000000,  0.00000000000000 ]
      - [  0.00000000000000,  0.00000000000000 ]
    - # atom 2
      - [ -0.69673824201405,  0.00000000000000 ]
      - [ -0.00000000000000, -0.00000000000000 ]
      - [ -0.00000000000000,  0.12064751184825 ]
  - # 6
    frequency:    5.5199029666
    eigenvector:
    - # atom 1
      - [  0.00000000000000,  0.00000000000000 ]
      - [  0.65373036537597, -0.26951179823044 ]
      - [  0.00000000000001, -0.00000000000002 ]
    - # atom 2
      - [  0.00000000000000,  0.00000000000000 ]
      - [ -0.65373036537597,  0.26951179823044 ]
      - [ -0.00000000000001,  0.00000000000001 ]

- q-position: [    0.0800000,    0.0000000,    0.0800000 ]
  distance:    0.0243532
  band:
  - # 1
    frequency:    0.4524175901
    eigenvector:
    - # atom 1
      - [  0.70422208167221,  0.00000000000000 ]
      - [  0.00000000000000,  0.00000000000000 ]
      - [  0.05544006106443, -0.03158574543103 ]
    - # atom 2
      - [  0.68441901209527, -0.01085115559480 ]
      - [  0.00000000000000,  0.00000000000000 ]
      - [  0.05436775508594, -0.16881059063847 ]
  - # 2
    frequency:    0.4524175901
    eigenvector:
    - # atom 1
      - [  0.06380642354232,  0.00000000000000 ]
      - [ -0.00000000000000,  0.00000000000000 ]
      - [ -0.61188377350336,  0.34860721168391 ]
    - # atom 2
      - [  0.13080438520950,  0.11976260315625 ]
      - [ -0.00000000000000,  0.00000000000000 ]
      - [ -0.60004889064304,  0.32937586513474 ]
  - # 3
    frequency:    0.8343793065
    eigenvector:
    - # atom 1
      - [  0.00000000000000,  0.00000000000000 ]
      - [ -0.70479777065469, -0.05709730711850 ]
      - [  0.00000000000000,  0.00000000000000 ]
    - # atom 2
      - [  0.00000000000000, -0.00000000000000 ]
      - [ -0.70479777065469, -0.05709730711850 ]
      - [  0.00000000000000, -0.00000000000000 ]
  - # 4
    frequency:    5.4856822813
    eigenvector:
    - # atom 1
      - [  0.70710678118655,  0.00000000000000 ]
      - [  0.00000000000000,  0.00000000000000 ]
      - [  0.00000000000000,  0.00000000000000 ]
    - # atom 2
      - [ -0.69343012184786,  0.00000000000000 ]
      - [ -0.00000000000000, -0.00000000000000 ]
      - [ -0.00000000000000,  0.13840038335952 ]
  - # 5
    frequency:    5.4856822813
    eigenvector:
    - # atom 1
      - [  0.00000000000000, -0.00000000000000 ]
      - [ -0.00000000000002,  0.00000000000000 ]
      - [ -0.22791541121412, -0.66936878126418 ]
    - # atom 2
      - [  0.13101401146289, -0.04460935904567 ]
      - [  0.00000000000002, -0.00000000000000 ]
      - [  0.22350713580205,  0.65642203964485 ]
  - # 6
    frequency:    5.5205160201
    eigenvector:
    - # atom 1
      - [ -0.00000000000000,  0.00000000000000 ]
      - [  0.70416760291625,  0.06440486785317 ]
      - [ -0.00000000000000, -0.00000000000002 ]
    - # atom 2
      - [  0.00000000000000, -0.00000000000000 ]
      - [ -0.70416760291625, -0.06440486785317 ]
      - [  0.00000000000000,  0.00000000000002 ]

- q-position: [    0.0900000,    0.0000000,    0.0900000 ]
  distance:    0.0273974
  band:
  - # 1
    frequency:    0.5052252398
    eigenvector:
    - # atom 1
      - [ -0.70594804682113,  0.00000000000000 ]
      - [ -0.00000000000000, -0.00000000000000 ]
      - [ -0.02985528385331,  0.02731331571732 ]
    - # atom 2
      - [ -0.68243760025637,  0.00660101353845 ]
      - [ -0.00000000000000, -0.00000000000000 ]
      - [ -0.02911639734286,  0.18272269640732 ]
  - # 2
    frequency:    0.5052252398
    eigenvector:
    - # atom 1
      - [  0.04046424581573,  0.00000000000000 ]
      - [ -0.00000000000000, -0.00000000000000 ]
      - [ -0.52086178547638,  0.47651405565936 ]
    - # atom 2
      - [  0.14482022054324,  0.11516272008943 ]
      - [ -0.00000000000000, -0.00000000000000 ]
      - [ -0.50797101046343,  0.45577418109429 ]
  - # 3
    frequency:    0.9373638648
    eigenvector:
    - # atom 1
      - [  0.00000000000000,  0.00000000000000 ]
      - [ -0.70506486075707, -0.05369862312592 ]
      - [  0.00000000000000, -0.00000000000000 ]
    - # atom 2
      - [  0.00000000000000, -0.00000000000000 ]
      - [ -0.70506486075707, -0.05369862312592 ]
      - [  0.00000000000000, -0.00000000000000 ]
  - # 4
    frequency:    5.4779478175
    eigenvector:
    - # atom 1
      - [  0.70710678118655,  0.00000000000000 ]
      - [  0.00000000000000,  0.00000000000000 ]
      - [  0.00000000000000,  0.00000000000000 ]
    - # atom 2
      - [ -0.68960664068754, -0.00000000000000 ]
      - [ -0.00000000000000,  0.00000000000000 ]
      - [ -0.00000000000000,  0.15634155276077 ]
  - # 5
    frequency:    5.4779478175
    eigenvector:
    - # atom 1
      - [ -0.00000000000000,  0.00000000000000 ]
      - [ -0.00000000000000, -0.00000000000000 ]
      - [  0.11070958698255,  0.69838627374122 ]
    - # atom 2
      - [ -0.15441344556234,  0.02447792779658 ]
      - [  0.00000000000000,  0.00000000000000 ]
      - [ -0.10796964249562, -0.68110195652319 ]
  - # 6
    frequency:    5.5209935001
    eigenvector:
    - # atom 1
      - [  0.00000000000000,  0.00000000000000 ]
      - [ -0.70487048450902, -0.05619252679867 ]
      - [ -0.00000000000000, -0.00000000000000 ]
    - # atom 2
      - [  0.00000000000000, -0.00000000000000 ]
      - [  0.70487048450902,  0.05619252679867 ]
      - [  0.00000000000000,  0.00000000000000 ]

- q-position: [    0.1000000,    0.0000000,    0.1000000 ]
  distance:    0.0304415
  band:
  - # 1
    frequency:    0.5567177123
    eigenvector:
    - # atom 1
      - [ -0.06027261645272,  0.00000000000000 ]
      - [  0.00000000000000, -0.00000000000000 ]
      - [ -0.03142471739178,  0.70383215246448 ]
    - # atom 2
      - [  0.11526577736448,  0.00775422951552 ]
      - [  0.00000000000000, -0.00000000000000 ]
      - [ -0.03045299308400,  0.69694066297312 ]
  - # 2
    frequency:    0.5567177123
    eigenvector:
    - # atom 1
      - [  0.70453332902422,  0.00000000000000 ]
      - [  0.00000000000000,  0.00000000000000 ]
      - [ -0.00268837521301,  0.06021263100689 ]
    - # atom 2
      - [  0.69760535579276,  0.00066337202546 ]
      - [  0.00000000000000,  0.00000000000000 ]
      - [ -0.00260524448791, -0.11549692726638 ]
  - # 3
    frequency:    1.0398990244
    eigenvector:
    - # atom 1
      - [ -0.00000000000000, -0.00000000000000 ]
      - [  0.61021769174131,  0.35725952567553 ]
      - [  0.00000000000000, -0.00000000000000 ]
    - # atom 2
      - [ -0.00000000000000, -0.00000000000000 ]
      - [  0.61021769174132,  0.35725952567553 ]
      - [  0.00000000000000, -0.00000000000000 ]
  - # 4
    frequency:    5.4695365723
    eigenvector:
    - # atom 1
      - [  0.07009139265358,  0.00000000000000 ]
      - [ -0.00000000000000, -0.00000000000000 ]
      - [ -0.01233713521114, -0.70351616311970 ]
    - # atom 2
      - [  0.10567264804900, -0.00304425897609 ]
      - [  0.00000000000000,  0.00000000000000 ]
      - [  0.01195564270562,  0.69905728416854 ]
  - # 5
    frequency:    5.4695365723
    eigenvector:
    - # atom 1
      - [  0.70362432922397,  0.00000000000000 ]
      - [ -0.00000000000000, -0.00000000000000 ]
      - [  0.00122896118339,  0.07008061770938 ]
    - # atom 2
      - [ -0.69915944674951,  0.00030325323098 ]
      - [  0.00000000000000,  0.00000000000000 ]
      - [ -0.00119095888601,  0.10570978041474 ]
  - # 6
    frequency:    5.5212591080
    eigenvector:
    - # atom 1
      - [ -0.00000000000000,  0.00000000000000 ]
      - [ -0.57927527059880, -0.40551222037405 ]
      - [  0.00000000000000,  0.00000000000000 ]
    - # atom 2
      - [  0.00000000000000, -0.00000000000000 ]
      - [  0.57927527059880,  0.40551222037405 ]
      - [ -0.00000000000000, -0.00000000000000 ]

- q-position: [    0.1100000,    0.0000000,    0.1100000 ]
  distance:    0.0334857
  band:
  - # 1
    frequency:    0.6067536160
    eigenvector:
    - # atom 1
      - [  0.05718862908109,  0.00000000000000 ]
      - [  0.00000000000000, -0.00000000000000 ]
      - [  0.17516163767725, -0.68267698173444 ]
    - # atom 2
      - [ -0.13114784677782, -0.04776732130308 ]
      - [  0.00000000000000, -0.00000000000000 ]
      - [  0.16852264633961, -0.67239768215823 ]
  - # 2
    frequency:    0.6067536160
    eigenvector:
    - # atom 1
      - [  0.70479036649477, -0.00000000000000 ]
      - [ -0.00000000000000, -0.00000000000000 ]
      - [ -0.01421309711735,  0.05539428821194 ]
    - # atom 2
      - [  0.69318359915919,  0.00387597184931 ]
      - [ -0.00000000000000, -0.00000000000000 ]
      - [ -0.01367439109761, -0.13890459217405 ]
  - # 3
    frequency:    1.1419422723
    eigenvector:
    - # atom 1
      - [ -0.00000000000000,  0.00000000000000 ]
      - [ -0.70436337794017, -0.06222725943437 ]
      - [  0.00000000000000, -0.00000000000000 ]
    - # atom 2
      - [ -0.00000000000000, -0.00000000000000 ]
      - [ -0.70436337794017, -0.06222725943437 ]
      - [  0.00000000000000, -0.00000000000000 ]
  - # 4
    frequency:    5.4605223197
    eigenvector:
    - # atom 1
      - [  0.00000000000000,  0.00000000000000 ]
      - [ -0.00000000000001, -0.00000000000000 ]
      - [  0.01563202077808,  0.70693397140496 ]
    - # atom 2
      - [ -0.19278389149561,  0.00426291834802 ]
      - [  0.00000000000001,  0.00000000000000 ]
      - [ -0.01503953459268, -0.68013969969867 ]
  - # 5
    frequency:    5.4605223197
    eigenvector:
    - # atom 1
      - [  0.70710678118655,  0.00000000000000 ]
      - [  0.00000000000000,  0.00000000000000 ]
      - [ -0.00000000000000, -0.00000000000000 ]
    - # atom 2
      - [ -0.68030595962917, -0.00000000000000 ]
      - [ -0.00000000000000, -0.00000000000000 ]
      - [  0.00000000000000,  0.19283101745579 ]
  - # 6
    frequency:    5.5212304650
    eigenvector:
    - # atom 1
      - [ -0.00000000000000,  0.00000000000000 ]
      - [  0.70492160541545,  0.05554754916736 ]
      - [  0.00000000000000,  0.00000000000001 ]
    - # atom 2
      - [ -0.00000000000000,  0.00000000000000 ]
      - [ -0.70492160541545, -0.05554754916736 ]
      - [ -0.00000000000000, -0.00000000000001 ]

- q-position: [    0.1200000,    0.0000000,    0.1200000 ]
  distance:    0.0365298
  band:
  - # 1
    frequency:    0.6551939132
    eigenvector:
    - # atom 1
      - [  0.69159228335891,  0.00000000000000 ]
      - [  0.00000000000000,  0.00000000000000 ]
      - [  0.03205147224557, -0.14378044625507 ]
    - # atom 2
      - [  0.61698199695791, -0.00958176633978 ]
      - [  0.00000000000000,  0.00000000000000 ]
      - [  0.03058572586875, -0.34395627419299 ]
  - # 2
    frequency:    0.6551939132
    eigenvector:
    - # atom 1