nqpoint: 408    
npath: 8      
segment_nqpoint:
- 51
- 51
- 51
- 51
- 51
- 51
- 51
- 51
labels:
- [ '$\Gamma$', '$\mathrm{X}$' ]
- [ '$\mathrm{X}$', '$\mathrm{M}$' ]
- [ '$\mathrm{M}$', '$\Gamma$' ]
- [ '$\Gamma$', '$\mathrm{Z}$' ]
- [ '$\mathrm{Z_0}$', '$\mathrm{M}$' ]
- [ '$\mathrm{X}$', '$\mathrm{P}$' ]
- [ '$\mathrm{P}$', '$\mathrm{N}$' ]
- [ '$\mathrm{N}$', '$\Gamma$' ]
reciprocal_lattice:
- [  -0.00000000,   0.17005990,   0.31263639 ] # a*
- [   0.17005990,   0.00000000,   0.31263639 ] # b*
- [   0.17005990,   0.17005990,   0.00000000 ] # c*
natom: 2      
lattice:
- [    -2.940140455272370,     2.940140455272370,     1.599301988877041 ] # a
- [     2.940140455272370,    -2.940140455272370,     1.599301988877041 ] # b
- [     2.940140455272370,     2.940140455272370,    -1.599301988877041 ] # c
points:
- symbol: Sn # 1
  coordinates: [  0.250000000000000,  0.750000000000000,  0.500000000000000 ]
  mass: 118.710000
- symbol: Sn # 2
  coordinates: [  0.000000000000000,  0.000000000000000,  0.000000000000000 ]
  mass: 118.710000

phonon:
- q-position: [    0.0000000,    0.0000000,    0.0000000 ]
  distance:    0.0000000
  band:
  - # 1
    frequency:    0.0000002674
    eigenvector:
    - # atom 1
      - [ -0.00217616062418,  0.00000000000000 ]
      - [  0.70702098382415,  0.00000000000000 ]
      - [ -0.01079781261477,  0.00000000000000 ]
    - # atom 2
      - [ -0.00217616062418,  0.00000000000000 ]
      - [  0.70702098382415,  0.00000000000000 ]
      - [ -0.01079781261477,  0.00000000000000 ]
  - # 2
    frequency:    0.0000002716
    eigenvector:
    - # atom 1
      - [  0.70708531560778, -0.00000000000000 ]
      - [  0.00225314606914,  0.00000000000000 ]
      - [  0.00502790061988,  0.00000000000000 ]
    - # atom 2
      - [  0.70708531560778,  0.00000000000000 ]
      - [  0.00225314606914,  0.00000000000000 ]
      - [  0.00502790061988,  0.00000000000000 ]
  - # 3
    frequency:    0.0000003109
    eigenvector:
    - # atom 1
      - [ -0.00506169702669,  0.00000000000000 ]
      - [  0.01078201118146,  0.00000000000000 ]
      - [  0.70700645503283,  0.00000000000000 ]
    - # atom 2
      - [ -0.00506169702669,  0.00000000000000 ]
      - [  0.01078201118146,  0.00000000000000 ]
      - [  0.70700645503283,  0.00000000000000 ]
  - # 4
    frequency:    1.4585765907
    eigenvector:
    - # atom 1
      - [  0.00000000000000,  0.00000000000000 ]
      - [  0.00000000000000,  0.00000000000000 ]
      - [ -0.70710678118655,  0.00000000000000 ]
    - # atom 2
      - [  0.00000000000000,  0.00000000000000 ]
      - [  0.00000000000000,  0.00000000000000 ]
      - [  0.70710678118655,  0.00000000000000 ]
  - # 5
    frequency:    3.9284024871
    eigenvector:
    - # atom 1
      - [ -0.00000000000000,  0.00000000000000 ]
      - [ -0.70710678118655,  0.00000000000000 ]
      - [  0.00000000000000,  0.00000000000000 ]
    - # atom 2
      - [  0.00000000000000,  0.00000000000000 ]
      - [  0.70710678118655,  0.00000000000000 ]
      - [  0.00000000000000,  0.00000000000000 ]
  - # 6
    frequency:    3.9284024871
    eigenvector:
    - # atom 1
      - [  0.70710678118655,  0.00000000000000 ]
      - [  0.00000000000000,  0.00000000000000 ]
      - [ -0.00000000000000,  0.00000000000000 ]
    - # atom 2
      - [ -0.70710678118655,  0.00000000000000 ]
      - [  0.00000000000000,  0.00000000000000 ]
      - [ -0.00000000000000,  0.00000000000000 ]

- q-position: [    0.0000000,    0.0000000,    0.0100000 ]
  distance:    0.0024050
  band:
  - # 1
    frequency:    0.0240915435
    eigenvector:
    - # atom 1
      - [ -0.00221414286318,  0.00000000000000 ]
      - [  0.00221414286318, -0.00000000000002 ]
      - [ -0.00000000002374, -0.70709984807152 ]
    - # atom 2
      - [  0.00221414286316, -0.00000000000015 ]
      - [ -0.00221414286316,  0.00000000000013 ]
      - [ -0.00000000002374, -0.70709984807152 ]
  - # 2
    frequency:    0.0312297001
    eigenvector:
    - # atom 1
      - [  0.49951596393371,  0.00000000000000 ]
      - [ -0.49951596393422,  0.00000000000000 ]
      - [ -0.00000000000009, -0.03110632653083 ]
    - # atom 2
      - [  0.49951596393371, -0.00000000000000 ]
      - [ -0.49951596393422,  0.00000000000000 ]
      - [ -0.00000000000009,  0.03110632653080 ]
  - # 3
    frequency:    0.0798530556
    eigenvector:
    - # atom 1
      - [  0.50000000000025,  0.00000000000000 ]
      - [  0.49999999999975, -0.00000000000000 ]
      - [ -0.00000000000002, -0.00000000000001 ]
    - # atom 2
      - [  0.50000000000025, -0.00000000000000 ]
      - [  0.49999999999975, -0.00000000000000 ]
      - [ -0.00000000000002,  0.00000000000002 ]
  - # 4
    frequency:    1.4599249468
    eigenvector:
    - # atom 1
      - [ -0.02199549442774,  0.00000000000000 ]
      - [  0.02199549442774, -0.00000000000000 ]
      - [  0.00000000000000, -0.70642225081728 ]
    - # atom 2
      - [ -0.02199549442774,  0.00000000000000 ]
      - [  0.02199549442774,  0.00000000000000 ]
      - [ -0.00000000000000,  0.70642225081728 ]
  - # 5
    frequency:    3.9280075582
    eigenvector:
    - # atom 1
      - [ -0.49999509754616,  0.00000000000000 ]
      - [  0.49999509754854, -0.00000000000000 ]
      - [ -0.00000000000000,  0.00313127086613 ]
    - # atom 2
      - [  0.49999509754616,  0.00000000000000 ]
      - [ -0.49999509754854,  0.00000000000000 ]
      - [  0.00000000000000,  0.00313127086613 ]
  - # 6
    frequency:    3.9281317780
    eigenvector:
    - # atom 1
      - [ -0.50000000000119,  0.00000000000000 ]
      - [ -0.49999999999881,  0.00000000000000 ]
      - [  0.00000000000000,  0.00000000000001 ]
    - # atom 2
      - [  0.50000000000119, -0.00000000000000 ]
      - [  0.49999999999881, -0.00000000000000 ]
      - [ -0.00000000000000,  0.00000000000001 ]

- q-position: [    0.0000000,    0.0000000,    0.0200000 ]
  distance:    0.0048100
  band:
  - # 1
    frequency:    0.0481570017
    eigenvector:
    - # atom 1
      - [ -0.00443106432301,  0.00000000000000 ]
      - [  0.00443106432300, -0.00000000000000 ]
      - [ -0.00000000000679, -0.70707901350410 ]
    - # atom 2
      - [  0.00443106432305, -0.00000000000008 ]
      - [ -0.00443106432306,  0.00000000000008 ]
      - [ -0.00000000000678, -0.70707901350410 ]
  - # 2
    frequency:    0.0623315518
    eigenvector:
    - # atom 1
      - [  0.49806835128207,  0.00000000000000 ]
      - [ -0.49806835128208, -0.00000000000000 ]
      - [ -0.00000000000006, -0.06209536941118 ]
    - # atom 2
      - [  0.49806835128207, -0.00000000000000 ]
      - [ -0.49806835128208,  0.00000000000000 ]
      - [ -0.00000000000006,  0.06209536941125 ]
  - # 3
    frequency:    0.1596607908
    eigenvector:
    - # atom 1
      - [  0.50000000000001,  0.00000000000000 ]
      - [  0.49999999999999, -0.00000000000000 ]
      - [ -0.00000000000000, -0.00000000000000 ]
    - # atom 2
      - [  0.50000000000001, -0.00000000000000 ]
      - [  0.49999999999999,  0.00000000000000 ]
      - [ -0.00000000000000, -0.00000000000000 ]
  - # 4
    frequency:    1.4639645807
    eigenvector:
    - # atom 1
      - [ -0.04390805679096,  0.00000000000000 ]
      - [  0.04390805679096, -0.00000000000000 ]
      - [  0.00000000000000, -0.70437501737191 ]
    - # atom 2
      - [ -0.04390805679096,  0.00000000000000 ]
      - [  0.04390805679096,  0.00000000000000 ]
      - [ -0.00000000000000,  0.70437501737191 ]
  - # 5
    frequency:    3.9268234881
    eigenvector:
    - # atom 1
      - [ -0.49998036528344,  0.00000000000000 ]
      - [  0.49998036528344,  0.00000000000000 ]
      - [  0.00000000000000,  0.00626647126138 ]
    - # atom 2
      - [  0.49998036528344,  0.00000000000000 ]
      - [ -0.49998036528344, -0.00000000000000 ]
      - [  0.00000000000000,  0.00626647126138 ]
  - # 6
    frequency:    3.9273197684
    eigenvector:
    - # atom 1
      - [ -0.50000000000000,  0.00000000000000 ]
      - [ -0.50000000000000, -0.00000000000000 ]
      - [  0.00000000000000, -0.00000000000000 ]
    - # atom 2
      - [  0.50000000000000, -0.00000000000000 ]
      - [  0.50000000000000,  0.00000000000000 ]
      - [ -0.00000000000000,  0.00000000000000 ]

- q-position: [    0.0000000,    0.0000000,    0.0300000 ]
  distance:    0.0072150
  band:
  - # 1
    frequency:    0.0721703207
    eigenvector:
    - # atom 1
      - [ -0.00665353462149,  0.00000000000000 ]
      - [  0.00665353462149, -0.00000000000000 ]
      - [ -0.00000000000151, -0.70704417185497 ]
    - # atom 2
      - [  0.00665353462146, -0.00000000000003 ]
      - [ -0.00665353462146,  0.00000000000003 ]
      - [ -0.00000000000150, -0.70704417185497 ]
  - # 2
    frequency:    0.0931805481
    eigenvector:
    - # atom 1
      - [  0.49567069951241,  0.00000000000000 ]
      - [ -0.49567069951239, -0.00000000000000 ]
      - [ -0.00000000000002, -0.09284996117276 ]
    - # atom 2
      - [  0.49567069951241, -0.00000000000000 ]
      - [ -0.49567069951239,  0.00000000000000 ]
      - [ -0.00000000000002,  0.09284996117271 ]
  - # 3
    frequency:    0.2393779169
    eigenvector:
    - # atom 1
      - [  0.49999999999999,  0.00000000000000 ]
      - [  0.50000000000001, -0.00000000000000 ]
      - [ -0.00000000000000,  0.00000000000000 ]
    - # atom 2
      - [  0.49999999999999, -0.00000000000000 ]
      - [  0.50000000000001, -0.00000000000000 ]
      - [ -0.00000000000000, -0.00000000000000 ]
  - # 4
    frequency:    1.4706791097
    eigenvector:
    - # atom 1
      - [ -0.06565483717815,  0.00000000000000 ]
      - [  0.06565483717815, -0.00000000000000 ]
      - [  0.00000000000000, -0.70098422572139 ]
    - # atom 2
      - [ -0.06565483717815,  0.00000000000000 ]
      - [  0.06565483717815,  0.00000000000000 ]
      - [ -0.00000000000000,  0.70098422572139 ]
  - # 5
    frequency:    3.9248524196
    eigenvector:
    - # atom 1
      - [ -0.49995572851724,  0.00000000000000 ]
      - [  0.49995572851691,  0.00000000000000 ]
      - [ -0.00000000000000,  0.00940951889941 ]
    - # atom 2
      - [  0.49995572851724,  0.00000000000000 ]
      - [ -0.49995572851691, -0.00000000000000 ]
      - [  0.00000000000000,  0.00940951889941 ]
  - # 6
    frequency:    3.9259668051
    eigenvector:
    - # atom 1
      - [ -0.49999999999983,  0.00000000000000 ]
      - [ -0.50000000000017, -0.00000000000000 ]
      - [  0.00000000000000, -0.00000000000000 ]
    - # atom 2
      - [  0.49999999999983, -0.00000000000000 ]
      - [  0.50000000000017,  0.00000000000000 ]
      - [ -0.00000000000000, -0.00000000000000 ]

- q-position: [    0.0000000,    0.0000000,    0.0400000 ]
  distance:    0.0096200
  band:
  - # 1
    frequency:    0.0961055092
    eigenvector:
    - # atom 1
      - [ -0.00888430731620,  0.00000000000000 ]
      - [  0.00888430731620, -0.00000000000000 ]
      - [ -0.00000000000046, -0.70699514720189 ]
    - # atom 2
      - [  0.00888430731621, -0.00000000000001 ]
      - [ -0.00888430731621,  0.00000000000001 ]
      - [ -0.00000000000046, -0.70699514720189 ]
  - # 2
    frequency:    0.1236572563
    eigenvector:
    - # atom 1
      - [  0.49234571424346,  0.00000000000000 ]
      - [ -0.49234571424343,  0.00000000000000 ]
      - [ -0.00000000000001, -0.12325337858339 ]
    - # atom 2
      - [  0.49234571424346, -0.00000000000000 ]
      - [ -0.49234571424343,  0.00000000000000 ]
      - [ -0.00000000000001,  0.12325337858340 ]
  - # 3
    frequency:    0.3189592089
    eigenvector:
    - # atom 1
      - [  0.49999999999998,  0.00000000000000 ]
      - [  0.50000000000002, -0.00000000000000 ]
      - [ -0.00000000000000,  0.00000000000000 ]
    - # atom 2
      - [  0.49999999999998, -0.00000000000000 ]
      - [  0.50000000000002, -0.00000000000000 ]
      - [ -0.00000000000000, -0.00000000000000 ]
  - # 4
    frequency:    1.4800409789
    eigenvector:
    - # atom 1
      - [ -0.08715329980047,  0.00000000000000 ]
      - [  0.08715329980047, -0.00000000000000 ]
      - [  0.00000000000000, -0.69628198645935 ]
    - # atom 2
      - [ -0.08715329980047,  0.00000000000000 ]
      - [  0.08715329980047, -0.00000000000000 ]
      - [ -0.00000000000000,  0.69628198645935 ]
  - # 5
    frequency:    3.9220978984
    eigenvector:
    - # atom 1
      - [ -0.49992106285239,  0.00000000000000 ]
      - [  0.49992106285248,  0.00000000000000 ]
      - [ -0.00000000000000,  0.01256430789886 ]
    - # atom 2
      - [  0.49992106285239,  0.00000000000000 ]
      - [ -0.49992106285248, -0.00000000000000 ]
      - [  0.00000000000000,  0.01256430789886 ]
  - # 6
    frequency:    3.9240734457
    eigenvector:
    - # atom 1
      - [ -0.50000000000004,  0.00000000000000 ]
      - [ -0.49999999999996, -0.00000000000000 ]
      - [  0.00000000000000,  0.00000000000000 ]
    - # atom 2
      - [  0.50000000000004,  0.00000000000000 ]
      - [  0.49999999999996,  0.00000000000000 ]
      - [ -0.00000000000000,  0.00000000000000 ]

- q-position: [    0.0000000,    0.0000000,    0.0500000 ]
  distance:    0.0120251
  band:
  - # 1
    frequency:    0.1199366707
    eigenvector:
    - # atom 1
      - [ -0.01112611100348,  0.00000000000000 ]
      - [  0.01112611100348, -0.00000000000000 ]
      - [ -0.00000000000043, -0.70693169352341 ]
    - # atom 2
      - [  0.01112611100345, -0.00000000000001 ]
      - [ -0.01112611100345,  0.00000000000001 ]
      - [ -0.00000000000043, -0.70693169352341 ]
  - # 2
    frequency:    0.1536503360
    eigenvector:
    - # atom 1
      - [  0.48812539727953,  0.00000000000000 ]
      - [ -0.48812539727955,  0.00000000000000 ]
      - [ -0.00000000000001, -0.15319005536062 ]
    - # atom 2
      - [  0.48812539727953, -0.00000000000000 ]
      - [ -0.48812539727955,  0.00000000000000 ]
      - [ -0.00000000000001,  0.15319005536059 ]
  - # 3
    frequency:    0.3983595383
    eigenvector:
    - # atom 1
      - [  0.50000000000001,  0.00000000000000 ]
      - [  0.49999999999999, -0.00000000000000 ]
      - [ -0.00000000000000, -0.00000000000000 ]
    - # atom 2
      - [  0.50000000000001, -0.00000000000000 ]
      - [  0.49999999999999, -0.00000000000000 ]
      - [ -0.00000000000000,  0.00000000000000 ]
  - # 4
    frequency:    1.4920111488
    eigenvector:
    - # atom 1
      - [ -0.10832172695583,  0.00000000000000 ]
      - [  0.10832172695582, -0.00000000000000 ]
      - [  0.00000000000000, -0.69031355697148 ]
    - # atom 2
      - [ -0.10832172695582,  0.00000000000000 ]
      - [  0.10832172695582,  0.00000000000000 ]
      - [ -0.00000000000000,  0.69031355697148 ]
  - # 5
    frequency:    3.9185648350
    eigenvector:
    - # atom 1
      - [ -0.49987619432621,  0.00000000000000 ]
      - [  0.49987619432598,  0.00000000000000 ]
      - [ -0.00000000000000,  0.01573469707757 ]
    - # atom 2
      - [  0.49987619432621,  0.00000000000000 ]
      - [ -0.49987619432598, -0.00000000000000 ]
      - [  0.00000000000000,  0.01573469707757 ]
  - # 6
    frequency:    3.9216404279
    eigenvector:
    - # atom 1
      - [ -0.49999999999989,  0.00000000000000 ]
      - [ -0.50000000000011, -0.00000000000000 ]
      - [  0.00000000000000, -0.00000000000000 ]
    - # atom 2
      - [  0.49999999999989, -0.00000000000000 ]
      - [  0.50000000000011,  0.00000000000000 ]
      - [ -0.00000000000000, -0.00000000000000 ]

- q-position: [    0.0000000,    0.0000000,    0.0600000 ]
  distance:    0.0144301
  band:
  - # 1
    frequency:    0.1436380357
    eigenvector:
    - # atom 1
      - [ -0.01338164112230,  0.00000000000000 ]
      - [  0.01338164112230, -0.00000000000000 ]
      - [ -0.00000000000033, -0.70685349497739 ]
    - # atom 2
      - [  0.01338164112231, -0.00000000000001 ]
      - [ -0.01338164112231,  0.00000000000001 ]
      - [ -0.00000000000033, -0.70685349497739 ]
  - # 2
    frequency:    0.1830587400
    eigenvector:
    - # atom 1
      - [  0.48305107026294,  0.00000000000000 ]
      - [ -0.48305107026294, -0.00000000000000 ]
      - [ -0.00000000000001, -0.18254678040342 ]
    - # atom 2
      - [  0.48305107026294, -0.00000000000000 ]
      - [ -0.48305107026294,  0.00000000000000 ]
      - [ -0.00000000000001,  0.18254678040343 ]
  - # 3
    frequency:    0.4775339074
    eigenvector:
    - # atom 1
      - [  0.50000000000000,  0.00000000000000 ]
      - [  0.50000000000000, -0.00000000000000 ]
      - [ -0.00000000000000, -0.00000000000000 ]
    - # atom 2
      - [  0.50000000000000, -0.00000000000000 ]
      - [  0.50000000000000,  0.00000000000000 ]
      - [ -0.00000000000000,  0.00000000000000 ]
  - # 4
    frequency:    1.5065387740
    eigenvector:
    - # atom 1
      - [ -0.12908006630703,  0.00000000000000 ]
      - [  0.12908006630703, -0.00000000000000 ]
      - [  0.00000000000000, -0.68313737488469 ]
    - # atom 2
      - [ -0.12908006630703,  0.00000000000000 ]
      - [  0.12908006630703,  0.00000000000000 ]
      - [ -0.00000000000000,  0.68313737488469 ]
  - # 5
    frequency:    3.9142594519
    eigenvector:
    - # atom 1
      - [ -0.49982089960400,  0.00000000000000 ]
      - [  0.49982089960384,  0.00000000000000 ]
      - [ -0.00000000000000,  0.01892449836197 ]
    - # atom 2
      - [  0.49982089960400,  0.00000000000000 ]
      - [ -0.49982089960384, -0.00000000000000 ]
      - [  0.00000000000000,  0.01892449836197 ]
  - # 6
    frequency:    3.9186686280
    eigenvector:
    - # atom 1
      - [ -0.49999999999992,  0.00000000000000 ]
      - [ -0.50000000000008, -0.00000000000000 ]
      - [  0.00000000000000, -0.00000000000000 ]
    - # atom 2
      - [  0.49999999999992, -0.00000000000000 ]
      - [  0.50000000000008,  0.00000000000000 ]
      - [ -0.00000000000000, -0.00000000000000 ]

- q-position: [    0.0000000,    0.0000000,    0.0700000 ]
  distance:    0.0168351
  band:
  - # 1
    frequency:    0.1671839954
    eigenvector:
    - # atom 1
      - [ -0.01565355187361,  0.00000000000000 ]
      - [  0.01565355187361,  0.00000000000000 ]
      - [ -0.00000000000034, -0.70676016627105 ]
    - # atom 2
      - [  0.01565355187362, -0.00000000000002 ]
      - [ -0.01565355187362,  0.00000000000002 ]
      - [ -0.00000000000034, -0.70676016627105 ]
  - # 2
    frequency:    0.2117935046
    eigenvector:
    - # atom 1
      - [  0.47717317696967,  0.00000000000000 ]
      - [ -0.47717317696966, -0.00000000000000 ]
      - [ -0.00000000000001, -0.21121438956982 ]
    - # atom 2
      - [  0.47717317696967, -0.00000000000000 ]
      - [ -0.47717317696966,  0.00000000000000 ]
      - [ -0.00000000000001,  0.21121438956983 ]
  - # 3
    frequency:    0.5564374850
    eigenvector:
    - # atom 1
      - [  0.49999999999999,  0.00000000000000 ]
      - [  0.50000000000001,  0.00000000000000 ]
      - [  0.00000000000000,  0.00000000000000 ]
    - # atom 2
      - [  0.49999999999999,  0.00000000000000 ]
      - [  0.50000000000001,  0.00000000000000 ]
      - [  0.00000000000000, -0.00000000000000 ]
  - # 4
    frequency:    1.5235609673
    eigenvector:
    - # atom 1
      - [ -0.14935112714900,  0.00000000000000 ]
      - [  0.14935112714900, -0.00000000000000 ]
      - [  0.00000000000000, -0.67482477847116 ]
    - # atom 2
      - [ -0.14935112714900, -0.00000000000000 ]
      - [  0.14935112714900,  0.00000000000000 ]
      - [ -0.00000000000000,  0.67482477847116 ]
  - # 5
    frequency:    3.9091892166
    eigenvector:
    - # atom 1
      - [ -0.49975490624276,  0.00000000000000 ]
      - [  0.49975490624282,  0.00000000000000 ]
      - [  0.00000000000000,  0.02213746535898 ]
    - # atom 2
      - [  0.49975490624276,  0.00000000000000 ]
      - [ -0.49975490624282, -0.00000000000000 ]
      - [  0.00000000000000,  0.02213746535898 ]
  - # 6
    frequency:    3.9151590077
    eigenvector:
    - # atom 1
      - [ -0.50000000000003,  0.00000000000000 ]
      - [ -0.49999999999997, -0.00000000000000 ]
      - [  0.00000000000000,  0.00000000000000 ]
    - # atom 2
      - [  0.50000000000003, -0.00000000000000 ]
      - [  0.49999999999997,  0.00000000000000 ]
      - [ -0.00000000000000,  0.00000000000000 ]

- q-position: [    0.0000000,    0.0000000,    0.0800000 ]
  distance:    0.0192401
  band:
  - # 1
    frequency:    0.1905491360
    eigenvector:
    - # atom 1
      - [ -0.01794444829226,  0.00000000000000 ]
      - [  0.01794444829226,  0.00000000000000 ]
      - [ -0.00000000000017, -0.70665125313055 ]
    - # atom 2
      - [  0.01794444829227, -0.00000000000001 ]
      - [ -0.01794444829227,  0.00000000000001 ]
      - [ -0.00000000000017, -0.70665125313055 ]
  - # 2
    frequency:    0.2397790539
    eigenvector:
    - # atom 1
      - [  0.47055076142213,  0.00000000000000 ]
      - [ -0.47055076142213,  0.00000000000000 ]
      - [ -0.00000000000001, -0.23908986145404 ]
    - # atom 2
      - [  0.47055076142213, -0.00000000000000 ]
      - [ -0.47055076142213,  0.00000000000000 ]
      - [ -0.00000000000001,  0.23908986145405 ]
  - # 3
    frequency:    0.6350256441
    eigenvector:
    - # atom 1
      - [  0.50000000000000,  0.00000000000000 ]
      - [  0.50000000000000, -0.00000000000000 ]
      - [  0.00000000000000,  0.00000000000000 ]
    - # atom 2
      - [  0.50000000000000,  0.00000000000000 ]
      - [  0.50000000000000, -0.00000000000000 ]
      - [  0.00000000000000, -0.00000000000000 ]
  - # 4
    frequency:    1.5430027464
    eigenvector:
    - # atom 1
      - [ -0.16906206234711,  0.00000000000000 ]
      - [  0.16906206234711, -0.00000000000000 ]
      - [  0.00000000000000, -0.66545926858816 ]
    - # atom 2
      - [ -0.16906206234711,  0.00000000000000 ]
      - [  0.16906206234711, -0.00000000000000 ]
      - [  0.00000000000000,  0.66545926858816 ]
  - # 5
    frequency:    3.9033627610
    eigenvector:
    - # atom 1
      - [ -0.49967789302257,  0.00000000000000 ]
      - [  0.49967789302260,  0.00000000000000 ]
      - [ -0.00000000000000,  0.02537728214423 ]
    - # atom 2
      - [  0.49967789302257,  0.00000000000000 ]
      - [ -0.49967789302260, -0.00000000000000 ]
      - [  0.00000000000000,  0.02537728214423 ]
  - # 6
    frequency:    3.9111125511
    eigenvector:
    - # atom 1
      - [ -0.50000000000001,  0.00000000000000 ]
      - [ -0.49999999999998, -0.00000000000000 ]
      - [  0.00000000000000,  0.00000000000000 ]
    - # atom 2
      - [  0.50000000000002,  0.00000000000000 ]
      - [  0.49999999999998,  0.00000000000000 ]
      - [  0.00000000000000,  0.00000000000000 ]

- q-position: [    0.0000000,    0.0000000,    0.0900000 ]
  distance:    0.0216451
  band:
  - # 1
    frequency:    0.2137082739
    eigenvector:
    - # atom 1
      - [ -0.02025687851653,  0.00000000000000 ]
      - [  0.02025687851653, -0.00000000000000 ]
      - [ -0.00000000000005, -0.70652623287854 ]
    - # atom 2
      - [  0.02025687851654, -0.00000000000000 ]
      - [ -0.02025687851654,  0.00000000000000 ]
      - [ -0.00000000000005, -0.70652623287853 ]
  - # 2
    frequency:    0.2669539669
    eigenvector:
    - # atom 1
      - [  0.46325055620628,  0.00000000000000 ]
      - [ -0.46325055620628, -0.00000000000000 ]
      - [ -0.00000000000000, -0.26607864316614 ]
    - # atom 2
      - [  0.46325055620628, -0.00000000000000 ]
      - [ -0.46325055620628,  0.00000000000000 ]
      - [ -0.00000000000000,  0.26607864316616 ]
  - # 3
    frequency:    0.7132540016
    eigenvector:
    - # atom 1
      - [  0.50000000000000,  0.00000000000000 ]
      - [  0.50000000000000,  0.00000000000000 ]
      - [ -0.00000000000000, -0.00000000000000 ]
    - # atom 2
      - [  0.50000000000000, -0.00000000000000 ]
      - [  0.50000000000000,  0.00000000000000 ]
      - [ -0.00000000000000,  0.00000000000000 ]
  - # 4
    frequency:    1.5647772453
    eigenvector:
    - # atom 1
      - [ -0.18814601291170,  0.00000000000000 ]
      - [  0.18814601291170, -0.00000000000000 ]
      - [  0.00000000000000, -0.65513521936380 ]
    - # atom 2
      - [ -0.18814601291170,  0.00000000000000 ]
      - [  0.18814601291170,  0.00000000000000 ]
      - [ -0.00000000000000,  0.65513521936380 ]
  - # 5
    frequency:    3.8967897881
    eigenvector:
    - # atom 1
      - [ -0.49958949035461,  0.00000000000000 ]
      - [  0.49958949035458, -0.00000000000000 ]
      - [  0.00000000000000,  0.02864755232943 ]
    - # atom 2
      - [  0.49958949035461,  0.00000000000000 ]
      - [ -0.49958949035458,  0.00000000000000 ]
      - [  0.00000000000000,  0.02864755232943 ]
  - # 6
    frequency:    3.9065301925
    eigenvector:
    - # atom 1
      - [ -0.49999999999998,  0.00000000000000 ]
      - [ -0.50000000000002,  0.00000000000000 ]
      - [  0.00000000000000, -0.00000000000000 ]
    - # atom 2
      - [  0.49999999999998, -0.00000000000000 ]
      - [  0.50000000000002, -0.00000000000000 ]
      - [ -0.00000000000000, -0.00000000000000 ]

- q-position: [    0.0000000,    0.0000000,    0.1000000 ]
  distance:    0.0240501
  band:
  - # 1
    frequency:    0.2366364930
    eigenvector:
    - # atom 1
      - [ -0.02259332630586,  0.00000000000000 ]
      - [  0.02259332630586, -0.00000000000000 ]
      - [ -0.00000000000011, -0.70638451512818 ]
    - # atom 2
      - [  0.02259332630586, -0.00000000000001 ]
      - [ -0.02259332630586,  0.00000000000001 ]
      - [ -0.00000000000010, -0.70638451512818 ]
  - # 2
    frequency:    0.2932711865
    eigenvector:
    - # atom 1
      - [  0.45534566878906,  0.00000000000000 ]
      - [ -0.45534566878907,  0.00000000000000 ]
      - [ -0.00000000000001, -0.29209697675615 ]
    - # atom 2
      - [  0.45534566878906, -0.00000000000000 ]
      - [ -0.45534566878907,  0.00000000000000 ]
      - [ -0.00000000000001,  0.29209697675615 ]
  - # 3
    frequency:    0.7910784612
    eigenvector:
    - # atom 1
      - [  0.50000000000000,  0.00000000000000 ]
      - [  0.50000000000000, -0.00000000000000 ]
      - [ -0.00000000000000, -0.00000000000000 ]
    - # atom 2
      - [  0.50000000000000, -0.00000000000000 ]
      - [  0.50000000000000, -0.00000000000000 ]
      - [ -0.00000000000000,  0.00000000000000 ]
  - # 4
    frequency:    1.5887862464
    eigenvector:
    - # atom 1
      - [ -0.20654375302836,  0.00000000000000 ]
      - [  0.20654375302836, -0.00000000000000 ]
      - [ -0.00000000000000, -0.64395602036934 ]
    - # atom 2
      - [ -0.20654375302836, -0.00000000000000 ]
      - [  0.20654375302836, -0.00000000000000 ]
      - [ -0.00000000000000,  0.64395602036934 ]
  - # 5
    frequency:    3.8894809666
    eigenvector:
    - # atom 1
      - [ -0.49948928077233,  0.00000000000000 ]
      - [  0.49948928077228,  0.00000000000000 ]
      - [ -0.00000000000000,  0.03195178848087 ]
    - # atom 2
      - [  0.49948928077233,  0.00000000000000 ]
      - [ -0.49948928077228, -0.00000000000000 ]
      - [  0.00000000000000,  0.03195178848087 ]
  - # 6
    frequency:    3.9014127360
    eigenvector:
    - # atom 1
      - [ -0.49999999999998,  0.00000000000000 ]
      - [ -0.50000000000002, -0.00000000000000 ]
      - [  0.00000000000000, -0.00000000000000 ]
    - # atom 2
      - [  0.49999999999998,  0.00000000000000 ]
      - [  0.50000000000002,  0.00000000000000 ]
      - [  0.00000000000000, -0.00000000000000 ]

- q-position: [    0.0000000,    0.0000000,    0.1100000 ]
  distance:    0.0264551
  band:
  - # 1
    frequency:    0.2593091822
    eigenvector:
    - # atom 1
      - [ -0.02495620386531,  0.00000000000000 ]
      - [  0.02495620386531, -0.00000000000000 ]
      - [ -0.00000000000006, -0.70622544260121 ]
    - # atom 2
      - [  0.02495620386532, -0.00000000000000 ]
      - [ -0.02495620386532,  0.00000000000000 ]
      - [ -0.00000000000005, -0.70622544260120 ]
  - # 2
    frequency:    0.3186976887
    eigenvector:
    - # atom 1
      - [  0.44691391261112,  0.00000000000000 ]
      - [ -0.44691391261113, -0.00000000000000 ]
      - [ -0.00000000000000, -0.31707398100322 ]
    - # atom 2
      - [  0.44691391261112, -0.00000000000000 ]
      - [ -0.44691391261113,  0.00000000000000 ]
      - [ -0.00000000000000,  0.31707398100323 ]
  - # 3
    frequency:    0.8684552588
    eigenvector:
    - # atom 1
      - [  0.50000000000000,  0.00000000000000 ]
      - [  0.50000000000000,  0.00000000000000 ]
      - [ -0.00000000000000, -0.00000000000000 ]
    - # atom 2
      - [  0.50000000000000, -0.00000000000000 ]
      - [  0.50000000000000,  0.00000000000000 ]
      - [ -0.00000000000000,  0.00000000000000 ]
  - # 4
    frequency:    1.6149210542
    eigenvector:
    - # atom 1
      - [ -0.22420516210519,  0.00000000000000 ]
      - [  0.22420516210519,  0.00000000000000 ]
      - [  0.00000000000000, -0.63203171642788 ]
    - # atom 2
      - [ -0.22420516210519, -0.00000000000000 ]
      - [  0.22420516210519,  0.00000000000000 ]
      - [ -0.00000000000000,  0.63203171642788 ]
  - # 5
    frequency:    3.8814478150
    eigenvector:
    - # atom 1
      - [ -0.49937679950978,  0.00000000000000 ]
      - [  0.49937679950978,  0.00000000000000 ]
      - [ -0.00000000000000,  0.03529340197168 ]
    - # atom 2
      - [  0.49937679950978,  0.00000000000000 ]
      - [ -0.49937679950978, -0.00000000000000 ]
      - [  0.00000000000000,  0.03529340197168 ]
  - # 6
    frequency:    3.8957607681
    eigenvector:
    - # atom 1
      - [ -0.50000000000000,  0.00000000000000 ]
      - [ -0.50000000000000, -0.00000000000000 ]
      - [  0.00000000000000, -0.00000000000000 ]
    - # atom 2
      - [  0.50000000000000, -0.00000000000000 ]
      - [  0.50000000000000,  0.00000000000000 ]
      - [ -0.00000000000000, -0.00000000000000 ]

- q-position: [    0.0000000,    0.0000000,    0.1200000 ]
  distance:    0.0288601
  band:
  - # 1
    frequency:    0.2817020747
    eigenvector:
    - # atom 1
      - [ -0.02734784504263,  0.00000000000000 ]
      - [  0.02734784504263,  0.00000000000000 ]
      - [ -0.00000000000007, -0.70604829207573 ]
    - # atom 2
      - [  0.02734784504264, -0.00000000000001 ]
      - [ -0.02734784504263,  0.00000000000001 ]